# vtk DataFile Version 3.0
Scalar Field Data
ASCII
DATASET STRUCTURED_POINTS
DIMENSIONS 64 64 1
ORIGIN 0 0 0
SPACING 0.015873 0.015873 1
POINT_DATA 4096
SCALARS scalars double
LOOKUP_TABLE default
0
0
0
0
0
0
0
0
0
0
0
0
0
0
0
0
0
0
0
0
0
0
0
0
0
0
0
0
0
0
0
0
0
0
0
0
0
0
0
0
0
0
0
0
0
0
0
0
0
0
0
0
0
0
0
0
0
0
0
0
0
0
0
0
0
0.00992191
0.0197452
0.0293723
0.0387074
0.0476579
0.0561347
0.0640536
0.0713359
0.0779093
0.0837083
0.0886755
0.0927613
0.0959252
0.0981358
0.0993711
0.0996187
0.0988763
0.0971513
0.0944607
0.0908313
0.0862992
0.0809094
0.0747155
0.067779
0.0601689
0.0519609
0.0432364
0.0340822
0.0245893
0.014852
0.00496713
-0.00496713
-0.014852
-0.0245893
-0.0340822
-0.0432364
-0.0519609
-0.0601689
-0.067779
-0.0747155
-0.0809094
-0.0862992
-0.0908313
-0.0944607
-0.0971513
-0.0988763
-0.0996187
-0.0993711
-0.0981358
-0.0959252
-0.0927613
-0.0886755
-0.0837083
-0.0779093
-0.0713359
-0.0640536
-0.0561347
-0.0476579
-0.0387074
-0.0293723
-0.0197452
-0.00992191
0
0
0.0197452
0.0392942
0.0584526
0.0770301
0.0948421
0.111711
0.127471
0.141963
0.155044
0.166585
0.17647
0.184601
0.190897
0.195296
0.197755
0.198247
0.19677
0.193337
0.187983
0.18076
0.171741
0.161015
0.148688
0.134884
0.11974
0.103405
0.0860431
0.0678257
0.0489342
0.0295564
0.00988489
-0.00988489
-0.0295564
-0.0489342
-0.0678257
-0.0860431
-0.103405
-0.11974
-0.134884
-0.148688
-0.161015
-0.171741
-0.18076
-0.187983
-0.193337
-0.19677
-0.198247
-0.197755
-0.195296
-0.190897
-0.184601
-0.17647
-0.166585
-0.155044
-0.141963
-0.127471
-0.111711
-0.0948421
-0.0770301
-0.0584526
-0.0392942
-0.0197452
0
0
0.0293723
0.0584526
0.086952
0.114587
0.141084
0.166178
0.189621
0.211179
0.230638
0.247806
0.26251
0.274605
0.283972
0.290516
0.294173
0.294906
0.292708
0.287601
0.279636
0.268892
0.255475
0.23952
0.221184
0.200649
0.178121
0.153822
0.127995
0.100895
0.0727928
0.0439671
0.0147044
-0.0147044
-0.0439671
-0.0727928
-0.100895
-0.127995
-0.153822
-0.178121
-0.200649
-0.221184
-0.23952
-0.255475
-0.268892
-0.279636
-0.287601
-0.292708
-0.294906
-0.294173
-0.290516
-0.283972
-0.274605
-0.26251
-0.247806
-0.230638
-0.211179
-0.189621
-0.166178
-0.141084
-0.114587
-0.086952
-0.0584526
-0.0293723
0
0
0.0387074
0.0770301
0.114587
0.151006
0.185923
0.218993
0.249886
0.278296
0.30394
0.326564
0.345941
0.361881
0.374224
0.382848
0.387667
0.388633
0.385737
0.379007
0.368511
0.354352
0.336671
0.315644
0.291481
0.26442
0.234731
0.20271
0.168674
0.132962
0.095928
0.0579408
0.0193778
-0.0193778
-0.0579408
-0.095928
-0.132962
-0.168674
-0.20271
-0.234731
-0.26442
-0.291481
-0.315644
-0.336671
-0.354352
-0.368511
-0.379007
-0.385737
-0.388633
-0.387667
-0.382848
-0.374224
-0.361881
-0.345941
-0.326564
-0.30394
-0.278296
-0.249886
-0.218993
-0.185923
-0.151006
-0.114587
-0.0770301
-0.0387074
0
0
0.0476579
0.0948421
0.141084
0.185923
0.228915
0.269632
0.307668
0.342648
0.374221
0.402076
0.425935
0.44556
0.460757
0.471375
0.477309
0.478498
0.474933
0.466647
0.453723
0.43629
0.414521
0.388632
0.358881
0.325563
0.289009
0.249583
0.207677
0.163707
0.11811
0.0713387
0.0238586
-0.0238586
-0.0713387
-0.11811
-0.163707
-0.207677
-0.249583
-0.289009
-0.325563
-0.358881
-0.388632
-0.414521
-0.43629
-0.453723
-0.466647
-0.474933
-0.478498
-0.477309
-0.471375
-0.460757
-0.44556
-0.425935
-0.402076
-0.374221
-0.342648
-0.307668
-0.269632
-0.228915
-0.185923
-0.141084
-0.0948421
-0.0476579
0
0
0.0561347
0.111711
0.166178
0.218993
0.269632
0.31759
0.362393
0.403594
0.440783
0.473593
0.501695
0.524811
0.542711
0.555218
0.562207
0.563608
0.559408
0.549648
0.534426
0.513892
0.488251
0.457757
0.422714
0.38347
0.340415
0.293976
0.244616
0.192825
0.139118
0.0840275
0.0281023
-0.0281023
-0.0840275
-0.139118
-0.192825
-0.244616
-0.293976
-0.340415
-0.38347
-0.422714
-0.457757
-0.488251
-0.513892
-0.534426
-0.549648
-0.559408
-0.563608
-0.562207
-0.555218
-0.542711
-0.524811
-0.501695
-0.473593
-0.440783
-0.403594
-0.362393
-0.31759
-0.269632
-0.218993
-0.166178
-0.111711
-0.0561347
0
0
0.0640536
0.127471
0.189621
0.249886
0.307668
0.362393
0.413516
0.460529
0.502965
0.540402
0.572469
0.598846
0.619272
0.633543
0.641517
0.643116
0.638323
0.627187
0.609817
0.586386
0.557128
0.522333
0.482346
0.437566
0.388437
0.335448
0.279124
0.220027
0.158743
0.0958813
0.0320667
-0.0320667
-0.0958813
-0.158743
-0.220027
-0.279124
-0.335448
-0.388437
-0.437566
-0.482346
-0.522333
-0.557128
-0.586386
-0.609817
-0.627187
-0.638323
-0.643116
-0.641517
-0.633543
-0.619272
-0.598846
-0.572469
-0.540402
-0.502965
-0.460529
-0.413516
-0.362393
-0.307668
-0.249886
-0.189621
-0.127471
-0.0640536
0
0
0.0713359
0.141963
0.211179
0.278296
0.342648
0.403594
0.460529
0.512887
0.560147
0.601841
0.637553
0.66693
0.689677
0.705571
0.714452
0.716233
0.710895
0.698492
0.679148
0.653053
0.620469
0.581717
0.537185
0.487313
0.432599
0.373585
0.310858
0.245042
0.176791
0.106782
0.0357124
-0.0357124
-0.106782
-0.176791
-0.245042
-0.310858
-0.373585
-0.432599
-0.487313
-0.537185
-0.581717
-0.620469
-0.653053
-0.679148
-0.698492
-0.710895
-0.716233
-0.714452
-0.705571
-0.689677
-0.66693
-0.637553
-0.601841
-0.560147
-0.512887
-0.460529
-0.403594
-0.342648
-0.278296
-0.211179
-0.141963
-0.0713359
0
0
0.0779093
0.155044
0.230638
0.30394
0.374221
0.440783
0.502965
0.560147
0.611763
0.657299
0.696302
0.728385
0.753229
0.770587
0.780286
0.782231
0.776402
0.762856
0.741729
0.71323
0.677643
0.635321
0.586685
0.532218
0.472461
0.40801
0.339503
0.267622
0.193081
0.116622
0.0390031
-0.0390031
-0.116622
-0.193081
-0.267622
-0.339503
-0.40801
-0.472461
-0.532218
-0.586685
-0.635321
-0.677643
-0.71323
-0.741729
-0.762856
-0.776402
-0.782231
-0.780286
-0.770587
-0.753229
-0.728385
-0.696302
-0.657299
-0.611763
-0.560147
-0.502965
-0.440783
-0.374221
-0.30394
-0.230638
-0.155044
-0.0779093
0
0
0.0837083
0.166585
0.247806
0.326564
0.402076
0.473593
0.540402
0.601841
0.657299
0.706224
0.74813
0.782601
0.809294
0.827944
0.838366
0.840455
0.834192
0.819638
0.796938
0.766318
0.728082
0.68261
0.630353
0.571832
0.507628
0.438379
0.364773
0.287542
0.207453
0.125302
0.0419063
-0.0419063
-0.125302
-0.207453
-0.287542
-0.364773
-0.438379
-0.507628
-0.571832
-0.630353
-0.68261
-0.728082
-0.766318
-0.796938
-0.819638
-0.834192
-0.840455
-0.838366
-0.827944
-0.809294
-0.782601
-0.74813
-0.706224
-0.657299
-0.601841
-0.540402
-0.473593
-0.402076
-0.326564
-0.247806
-0.166585
-0.0837083
0
0
0.0886755
0.17647
0.26251
0.345941
0.425935
0.501695
0.572469
0.637553
0.696302
0.74813
0.792523
0.829039
0.857316
0.877073
0.888113
0.890327
0.883692
0.868274
0.844227
0.81179
0.771285
0.723115
0.667758
0.605764
0.53775
0.464392
0.386418
0.304604
0.219763
0.132738
0.0443929
-0.0443929
-0.132738
-0.219763
-0.304604
-0.386418
-0.464392
-0.53775
-0.605764
-0.667758
-0.723115
-0.771285
-0.81179
-0.844227
-0.868274
-0.883692
-0.890327
-0.888113
-0.877073
-0.857316
-0.829039
-0.792523
-0.74813
-0.696302
-0.637553
-0.572469
-0.501695
-0.425935
-0.345941
-0.26251
-0.17647
-0.0886755
0
0
0.0927613
0.184601
0.274605
0.361881
0.44556
0.524811
0.598846
0.66693
0.728385
0.782601
0.829039
0.867238
0.896818
0.917485
0.929034
0.93135
0.924409
0.908281
0.883126
0.849194
0.806823
0.756433
0.698525
0.633676
0.562528
0.485789
0.404223
0.318639
0.229889
0.138854
0.0464384
-0.0464384
-0.138854
-0.229889
-0.318639
-0.404223
-0.485789
-0.562528
-0.633676
-0.698525
-0.756433
-0.806823
-0.849194
-0.883126
-0.908281
-0.924409
-0.93135
-0.929034
-0.917485
-0.896818
-0.867238
-0.829039
-0.782601
-0.728385
-0.66693
-0.598846
-0.524811
-0.44556
-0.361881
-0.274605
-0.184601
-0.0927613
0
0
0.0959252
0.190897
0.283972
0.374224
0.460757
0.542711
0.619272
0.689677
0.753229
0.809294
0.857316
0.896818
0.927407
0.948779
0.960722
0.963116
0.955939
0.939261
0.913248
0.878159
0.834342
0.782234
0.722351
0.655289
0.581715
0.502359
0.41801
0.329508
0.23773
0.14359
0.0480223
-0.0480223
-0.14359
-0.23773
-0.329508
-0.41801
-0.502359
-0.581715
-0.655289
-0.722351
-0.782234
-0.834342
-0.878159
-0.913248
-0.939261
-0.955939
-0.963116
-0.960722
-0.948779
-0.927407
-0.896818
-0.857316
-0.809294
-0.753229
-0.689677
-0.619272
-0.542711
-0.460757
-0.374224
-0.283972
-0.190897
-0.0959252
0
0
0.0981358
0.195296
0.290516
0.382848
0.471375
0.555218
0.633543
0.705571
0.770587
0.827944
0.877073
0.917485
0.948779
0.970644
0.982861
0.985311
0.977968
0.960906
0.934294
0.898396
0.85357
0.80026
0.738997
0.67039
0.59512
0.513936
0.427643
0.337101
0.243208
0.146899
0.049129
-0.049129
-0.146899
-0.243208
-0.337101
-0.427643
-0.513936
-0.59512
-0.67039
-0.738997
-0.80026
-0.85357
-0.898396
-0.934294
-0.960906
-0.977968
-0.985311
-0.982861
-0.970644
-0.948779
-0.917485
-0.877073
-0.827944
-0.770587
-0.705571
-0.633543
-0.555218
-0.471375
-0.382848
-0.290516
-0.195296
-0.0981358
0
0
0.0993711
0.197755
0.294173
0.387667
0.477309
0.562207
0.641517
0.714452
0.780286
0.838366
0.888113
0.929034
0.960722
0.982861
0.995233
0.997713
0.990278
0.973001
0.946054
0.909704
0.864314
0.810333
0.748299
0.678828
0.602611
0.520405
0.433026
0.341344
0.24627
0.148748
0.0497474
-0.0497474
-0.148748
-0.24627
-0.341344
-0.433026
-0.520405
-0.602611
-0.678828
-0.748299
-0.810333
-0.864314
-0.909704
-0.946054
-0.973001
-0.990278
-0.997713
-0.995233
-0.982861
-0.960722
-0.929034
-0.888113
-0.838366
-0.780286
-0.714452
-0.641517
-0.562207
-0.477309
-0.387667
-0.294173
-0.197755
-0.0993711
0
0
0.0996187
0.198247
0.294906
0.388633
0.478498
0.563608
0.643116
0.716233
0.782231
0.840455
0.890327
0.93135
0.963116
0.985311
0.997713
1.0002
0.992746
0.975426
0.948412
0.911972
0.866468
0.812353
0.750164
0.68052
0.604113
0.521702
0.434105
0.342195
0.246884
0.149118
0.0498714
-0.0498714
-0.149118
-0.246884
-0.342195
-0.434105
-0.521702
-0.604113
-0.68052
-0.750164
-0.812353
-0.866468
-0.911972
-0.948412
-0.975426
-0.992746
-1.0002
-0.997713
-0.985311
-0.963116
-0.93135
-0.890327
-0.840455
-0.782231
-0.716233
-0.643116
-0.563608
-0.478498
-0.388633
-0.294906
-0.198247
-0.0996187
0
0
0.0988763
0.19677
0.292708
0.385737
0.474933
0.559408
0.638323
0.710895
0.776402
0.834192
0.883692
0.924409
0.955939
0.977968
0.990278
0.992746
0.985348
0.968157
0.941344
0.905175
0.860011
0.806299
0.744574
0.675449
0.599611
0.517814
0.43087
0.339645
0.245044
0.148007
0.0494997
-0.0494997
-0.148007
-0.245044
-0.339645
-0.43087
-0.517814
-0.599611
-0.675449
-0.744574
-0.806299
-0.860011
-0.905175
-0.941344
-0.968157
-0.985348
-0.992746
-0.990278
-0.977968
-0.955939
-0.924409
-0.883692
-0.834192
-0.776402
-0.710895
-0.638323
-0.559408
-0.474933
-0.385737
-0.292708
-0.19677
-0.0988763
0
0
0.0971513
0.193337
0.287601
0.379007
0.466647
0.549648
0.627187
0.698492
0.762856
0.819638
0.868274
0.908281
0.939261
0.960906
0.973001
0.975426
0.968157
0.951266
0.924921
0.889383
0.845007
0.792232
0.731584
0.663665
0.58915
0.50878
0.423353
0.333719
0.240768
0.145425
0.0486361
-0.0486361
-0.145425
-0.240768
-0.333719
-0.423353
-0.50878
-0.58915
-0.663665
-0.731584
-0.792232
-0.845007
-0.889383
-0.924921
-0.951266
-0.968157
-0.975426
-0.973001
-0.960906
-0.939261
-0.908281
-0.868274
-0.819638
-0.762856
-0.698492
-0.627187
-0.549648
-0.466647
-0.379007
-0.287601
-0.193337
-0.0971513
0
0
0.0944607
0.187983
0.279636
0.368511
0.453723
0.534426
0.609817
0.679148
0.741729
0.796938
0.844227
0.883126
0.913248
0.934294
0.946054
0.948412
0.941344
0.924921
0.899305
0.864752
0.821604
0.770291
0.711322
0.645284
0.572833
0.494689
0.411628
0.324477
0.2341
0.141397
0.0472891
-0.0472891
-0.141397
-0.2341
-0.324477
-0.411628
-0.494689
-0.572833
-0.645284
-0.711322
-0.770291
-0.821604
-0.864752
-0.899305
-0.924921
-0.941344
-0.948412
-0.946054
-0.934294
-0.913248
-0.883126
-0.844227
-0.796938
-0.741729
-0.679148
-0.609817
-0.534426
-0.453723
-0.368511
-0.279636
-0.187983
-0.0944607
0
0
0.0908313
0.18076
0.268892
0.354352
0.43629
0.513892
0.586386
0.653053
0.71323
0.766318
0.81179
0.849194
0.878159
0.898396
0.909704
0.911972
0.905175
0.889383
0.864752
0.831526
0.790036
0.740695
0.683992
0.620491
0.550824
0.475682
0.395813
0.31201
0.225106
0.135965
0.0454722
-0.0454722
-0.135965
-0.225106
-0.31201
-0.395813
-0.475682
-0.550824
-0.620491
-0.683992
-0.740695
-0.790036
-0.831526
-0.864752
-0.889383
-0.905175
-0.911972
-0.909704
-0.898396
-0.878159
-0.849194
-0.81179
-0.766318
-0.71323
-0.653053
-0.586386
-0.513892
-0.43629
-0.354352
-0.268892
-0.18076
-0.0908313
0
0
0.0862992
0.171741
0.255475
0.336671
0.414521
0.488251
0.557128
0.620469
0.677643
0.728082
0.771285
0.806823
0.834342
0.85357
0.864314
0.866468
0.860011
0.845007
0.821604
0.790036
0.750617
0.703737
0.649863
0.589531
0.52334
0.451947
0.376063
0.296442
0.213874
0.129181
0.0432033
-0.0432033
-0.129181
-0.213874
-0.296442
-0.376063
-0.451947
-0.52334
-0.589531
-0.649863
-0.703737
-0.750617
-0.790036
-0.821604
-0.845007
-0.860011
-0.866468
-0.864314
-0.85357
-0.834342
-0.806823
-0.771285
-0.728082
-0.677643
-0.620469
-0.557128
-0.488251
-0.414521
-0.336671
-0.255475
-0.171741
-0.0862992
0
0
0.0809094
0.161015
0.23952
0.315644
0.388632
0.457757
0.522333
0.581717
0.635321
0.68261
0.723115
0.756433
0.782234
0.80026
0.810333
0.812353
0.806299
0.792232
0.770291
0.740695
0.703737
0.659785
0.609276
0.552712
0.490655
0.423721
0.352576
0.277927
0.200516
0.121113
0.040505
-0.040505
-0.121113
-0.200516
-0.277927
-0.352576
-0.423721
-0.490655
-0.552712
-0.609276
-0.659785
-0.703737
-0.740695
-0.770291
-0.792232
-0.806299
-0.812353
-0.810333
-0.80026
-0.782234
-0.756433
-0.723115
-0.68261
-0.635321
-0.581717
-0.522333
-0.457757
-0.388632
-0.315644
-0.23952
-0.161015
-0.0809094
0
0
0.0747155
0.148688
0.221184
0.291481
0.358881
0.422714
0.482346
0.537185
0.586685
0.630353
0.667758
0.698525
0.722351
0.738997
0.748299
0.750164
0.744574
0.731584
0.711322
0.683992
0.649863
0.609276
0.562634
0.5104
0.453093
0.391284
0.325585
0.256651
0.185166
0.111841
0.0374042
-0.0374042
-0.111841
-0.185166
-0.256651
-0.325585
-0.391284
-0.453093
-0.5104
-0.562634
-0.609276
-0.649863
-0.683992
-0.711322
-0.731584
-0.744574
-0.750164
-0.748299
-0.738997
-0.722351
-0.698525
-0.667758
-0.630353
-0.586685
-0.537185
-0.482346
-0.422714
-0.358881
-0.291481
-0.221184
-0.148688
-0.0747155
0
0
0.067779
0.134884
0.200649
0.26442
0.325563
0.38347
0.437566
0.487313
0.532218
0.571832
0.605764
0.633676
0.655289
0.67039
0.678828
0.68052
0.675449
0.663665
0.645284
0.620491
0.589531
0.552712
0.5104
0.463015
0.411029
0.354958
0.295359
0.232824
0.167976
0.101458
0.0339317
-0.0339317
-0.101458
-0.167976
-0.232824
-0.295359
-0.354958
-0.411029
-0.463015
-0.5104
-0.552712
-0.589531
-0.620491
-0.645284
-0.663665
-0.675449
-0.68052
-0.678828
-0.67039
-0.655289
-0.633676
-0.605764
-0.571832
-0.532218
-0.487313
-0.437566
-0.38347
-0.325563
-0.26442
-0.200649
-0.134884
-0.067779
0
0
0.0601689
0.11974
0.178121
0.234731
0.289009
0.340415
0.388437
0.432599
0.472461
0.507628
0.53775
0.562528
0.581715
0.59512
0.602611
0.604113
0.599611
0.58915
0.572833
0.550824
0.52334
0.490655
0.453093
0.411029
0.36488
0.315104
0.262196
0.206683
0.149116
0.0900664
0.0301219
-0.0301219
-0.0900664
-0.149116
-0.206683
-0.262196
-0.315104
-0.36488
-0.411029
-0.453093
-0.490655
-0.52334
-0.550824
-0.572833
-0.58915
-0.599611
-0.604113
-0.602611
-0.59512
-0.581715
-0.562528
-0.53775
-0.507628
-0.472461
-0.432599
-0.388437
-0.340415
-0.289009
-0.234731
-0.178121
-0.11974
-0.0601689
0
0
0.0519609
0.103405
0.153822
0.20271
0.249583
0.293976
0.335448
0.373585
0.40801
0.438379
0.464392
0.485789
0.502359
0.513936
0.520405
0.521702
0.517814
0.50878
0.494689
0.475682
0.451947
0.423721
0.391284
0.354958
0.315104
0.272118
0.226428
0.178488
0.128774
0.0777798
0.0260128
-0.0260128
-0.0777798
-0.128774
-0.178488
-0.226428
-0.272118
-0.315104
-0.354958
-0.391284
-0.423721
-0.451947
-0.475682
-0.494689
-0.50878
-0.517814
-0.521702
-0.520405
-0.513936
-0.502359
-0.485789
-0.464392
-0.438379
-0.40801
-0.373585
-0.335448
-0.293976
-0.249583
-0.20271
-0.153822
-0.103405
-0.0519609
0
0
0.0432364
0.0860431
0.127995
0.168674
0.207677
0.244616
0.279124
0.310858
0.339503
0.364773
0.386418
0.404223
0.41801
0.427643
0.433026
0.434105
0.43087
0.423353
0.411628
0.395813
0.376063
0.352576
0.325585
0.295359
0.262196
0.226428
0.18841
0.148519
0.107152
0.0647202
0.0216451
-0.0216451
-0.0647202
-0.107152
-0.148519
-0.18841
-0.226428
-0.262196
-0.295359
-0.325585
-0.352576
-0.376063
-0.395813
-0.411628
-0.423353
-0.43087
-0.434105
-0.433026
-0.427643
-0.41801
-0.404223
-0.386418
-0.364773
-0.339503
-0.310858
-0.279124
-0.244616
-0.207677
-0.168674
-0.127995
-0.0860431
-0.0432364
0
0
0.0340822
0.0678257
0.100895
0.132962
0.163707
0.192825
0.220027
0.245042
0.267622
0.287542
0.304604
0.318639
0.329508
0.337101
0.341344
0.342195
0.339645
0.333719
0.324477
0.31201
0.296442
0.277927
0.256651
0.232824
0.206683
0.178488
0.148519
0.117074
0.0844654
0.0510174
0.0170623
-0.0170623
-0.0510174
-0.0844654
-0.117074
-0.148519
-0.178488
-0.206683
-0.232824
-0.256651
-0.277927
-0.296442
-0.31201
-0.324477
-0.333719
-0.339645
-0.342195
-0.341344
-0.337101
-0.329508
-0.318639
-0.304604
-0.287542
-0.267622
-0.245042
-0.220027
-0.192825
-0.163707
-0.132962
-0.100895
-0.0678257
-0.0340822
0
0
0.0245893
0.0489342
0.0727928
0.095928
0.11811
0.139118
0.158743
0.176791
0.193081
0.207453
0.219763
0.229889
0.23773
0.243208
0.24627
0.246884
0.245044
0.240768
0.2341
0.225106
0.213874
0.200516
0.185166
0.167976
0.149116
0.128774
0.107152
0.0844654
0.0609393
0.0368075
0.01231
-0.01231
-0.0368075
-0.0609393
-0.0844654
-0.107152
-0.128774
-0.149116
-0.167976
-0.185166
-0.200516
-0.213874
-0.225106
-0.2341
-0.240768
-0.245044
-0.246884
-0.24627
-0.243208
-0.23773
-0.229889
-0.219763
-0.207453
-0.193081
-0.176791
-0.158743
-0.139118
-0.11811
-0.095928
-0.0727928
-0.0489342
-0.0245893
0
0
0.014852
0.0295564
0.0439671
0.0579408
0.0713387
0.0840275
0.0958813
0.106782
0.116622
0.125302
0.132738
0.138854
0.14359
0.146899
0.148748
0.149118
0.148007
0.145425
0.141397
0.135965
0.129181
0.121113
0.111841
0.101458
0.0900664
0.0777798
0.0647202
0.0510174
0.0368075
0.0222319
0.00743525
-0.00743525
-0.0222319
-0.0368075
-0.0510174
-0.0647202
-0.0777798
-0.0900664
-0.101458
-0.111841
-0.121113
-0.129181
-0.135965
-0.141397
-0.145425
-0.148007
-0.149118
-0.148748
-0.146899
-0.14359
-0.138854
-0.132738
-0.125302
-0.116622
-0.106782
-0.0958813
-0.0840275
-0.0713387
-0.0579408
-0.0439671
-0.0295564
-0.014852
0
0
0.00496713
0.00988489
0.0147044
0.0193778
0.0238586
0.0281023
0.0320667
0.0357124
0.0390031
0.0419063
0.0443929
0.0464384
0.0480223
0.049129
0.0497474
0.0498714
0.0494997
0.0486361
0.0472891
0.0454722
0.0432033
0.040505
0.0374042
0.0339317
0.0301219
0.0260128
0.0216451
0.0170623
0.01231
0.00743525
0.00248666
-0.00248666
-0.00743525
-0.01231
-0.0170623
-0.0216451
-0.0260128
-0.0301219
-0.0339317
-0.0374042
-0.040505
-0.0432033
-0.0454722
-0.0472891
-0.0486361
-0.0494997
-0.0498714
-0.0497474
-0.049129
-0.0480223
-0.0464384
-0.0443929
-0.0419063
-0.0390031
-0.0357124
-0.0320667
-0.0281023
-0.0238586
-0.0193778
-0.0147044
-0.00988489
-0.00496713
0
0
-0.00496713
-0.00988489
-0.0147044
-0.0193778
-0.0238586
-0.0281023
-0.0320667
-0.0357124
-0.0390031
-0.0419063
-0.0443929
-0.0464384
-0.0480223
-0.049129
-0.0497474
-0.0498714
-0.0494997
-0.0486361
-0.0472891
-0.0454722
-0.0432033
-0.040505
-0.0374042
-0.0339317
-0.0301219
-0.0260128
-0.0216451
-0.0170623
-0.01231
-0.00743525
-0.00248666
0.00248666
0.00743525
0.01231
0.0170623
0.0216451
0.0260128
0.0301219
0.0339317
0.0374042
0.040505
0.0432033
0.0454722
0.0472891
0.0486361
0.0494997
0.0498714
0.0497474
0.049129
0.0480223
0.0464384
0.0443929
0.0419063
0.0390031
0.0357124
0.0320667
0.0281023
0.0238586
0.0193778
0.0147044
0.00988489
0.00496713
0
0
-0.014852
-0.0295564
-0.0439671
-0.0579408
-0.0713387
-0.0840275
-0.0958813
-0.106782
-0.116622
-0.125302
-0.132738
-0.138854
-0.14359
-0.146899
-0.148748
-0.149118
-0.148007
-0.145425
-0.141397
-0.135965
-0.129181
-0.121113
-0.111841
-0.101458
-0.0900664
-0.0777798
-0.0647202
-0.0510174
-0.0368075
-0.0222319
-0.00743525
0.00743525
0.0222319
0.0368075
0.0510174
0.0647202
0.0777798
0.0900664
0.101458
0.111841
0.121113
0.129181
0.135965
0.141397
0.145425
0.148007
0.149118
0.148748
0.146899
0.14359
0.138854
0.132738
0.125302
0.116622
0.106782
0.0958813
0.0840275
0.0713387
0.0579408
0.0439671
0.0295564
0.014852
0
0
-0.0245893
-0.0489342
-0.0727928
-0.095928
-0.11811
-0.139118
-0.158743
-0.176791
-0.193081
-0.207453
-0.219763
-0.229889
-0.23773
-0.243208
-0.24627
-0.246884
-0.245044
-0.240768
-0.2341
-0.225106
-0.213874
-0.200516
-0.185166
-0.167976
-0.149116
-0.128774
-0.107152
-0.0844654
-0.0609393
-0.0368075
-0.01231
0.01231
0.0368075
0.0609393
0.0844654
0.107152
0.128774
0.149116
0.167976
0.185166
0.200516
0.213874
0.225106
0.2341
0.240768
0.245044
0.246884
0.24627
0.243208
0.23773
0.229889
0.219763
0.207453
0.193081
0.176791
0.158743
0.139118
0.11811
0.095928
0.0727928
0.0489342
0.0245893
0
0
-0.0340822
-0.0678257
-0.100895
-0.132962
-0.163707
-0.192825
-0.220027
-0.245042
-0.267622
-0.287542
-0.304604
-0.318639
-0.329508
-0.337101
-0.341344
-0.342195
-0.339645
-0.333719
-0.324477
-0.31201
-0.296442
-0.277927
-0.256651
-0.232824
-0.206683
-0.178488
-0.148519
-0.117074
-0.0844654
-0.0510174
-0.0170623
0.0170623
0.0510174
0.0844654
0.117074
0.148519
0.178488
0.206683
0.232824
0.256651
0.277927
0.296442
0.31201
0.324477
0.333719
0.339645
0.342195
0.341344
0.337101
0.329508
0.318639
0.304604
0.287542
0.267622
0.245042
0.220027
0.192825
0.163707
0.132962
0.100895
0.0678257
0.0340822
0
0
-0.0432364
-0.0860431
-0.127995
-0.168674
-0.207677
-0.244616
-0.279124
-0.310858
-0.339503
-0.364773
-0.386418
-0.404223
-0.41801
-0.427643
-0.433026
-0.434105
-0.43087
-0.423353
-0.411628
-0.395813
-0.376063
-0.352576
-0.325585
-0.295359
-0.262196
-0.226428
-0.18841
-0.148519
-0.107152
-0.0647202
-0.0216451
0.0216451
0.0647202
0.107152
0.148519
0.18841
0.226428
0.262196
0.295359
0.325585
0.352576
0.376063
0.395813
0.411628
0.423353
0.43087
0.434105
0.433026
0.427643
0.41801
0.404223
0.386418
0.364773
0.339503
0.310858
0.279124
0.244616
0.207677
0.168674
0.127995
0.0860431
0.0432364
0
0
-0.0519609
-0.103405
-0.153822
-0.20271
-0.249583
-0.293976
-0.335448
-0.373585
-0.40801
-0.438379
-0.464392
-0.485789
-0.502359
-0.513936
-0.520405
-0.521702
-0.517814
-0.50878
-0.494689
-0.475682
-0.451947
-0.423721
-0.391284
-0.354958
-0.315104
-0.272118
-0.226428
-0.178488
-0.128774
-0.0777798
-0.0260128
0.0260128
0.0777798
0.128774
0.178488
0.226428
0.272118
0.315104
0.354958
0.391284
0.423721
0.451947
0.475682
0.494689
0.50878
0.517814
0.521702
0.520405
0.513936
0.502359
0.485789
0.464392
0.438379
0.40801
0.373585
0.335448
0.293976
0.249583
0.20271
0.153822
0.103405
0.0519609
0
0
-0.0601689
-0.11974
-0.178121
-0.234731
-0.289009
-0.340415
-0.388437
-0.432599
-0.472461
-0.507628
-0.53775
-0.562528
-0.581715
-0.59512
-0.602611
-0.604113
-0.599611
-0.58915
-0.572833
-0.550824
-0.52334
-0.490655
-0.453093
-0.411029
-0.36488
-0.315104
-0.262196
-0.206683
-0.149116
-0.0900664
-0.0301219
0.0301219
0.0900664
0.149116
0.206683
0.262196
0.315104
0.36488
0.411029
0.453093
0.490655
0.52334
0.550824
0.572833
0.58915
0.599611
0.604113
0.602611
0.59512
0.581715
0.562528
0.53775
0.507628
0.472461
0.432599
0.388437
0.340415
0.289009
0.234731
0.178121
0.11974
0.0601689
0
0
-0.067779
-0.134884
-0.200649
-0.26442
-0.325563
-0.38347
-0.437566
-0.487313
-0.532218
-0.571832
-0.605764
-0.633676
-0.655289
-0.67039
-0.678828
-0.68052
-0.675449
-0.663665
-0.645284
-0.620491
-0.589531
-0.552712
-0.5104
-0.463015
-0.411029
-0.354958
-0.295359
-0.232824
-0.167976
-0.101458
-0.0339317
0.0339317
0.101458
0.167976
0.232824
0.295359
0.354958
0.411029
0.463015
0.5104
0.552712
0.589531
0.620491
0.645284
0.663665
0.675449
0.68052
0.678828
0.67039
0.655289
0.633676
0.605764
0.571832
0.532218
0.487313
0.437566
0.38347
0.325563
0.26442
0.200649
0.134884
0.067779
0
0
-0.0747155
-0.148688
-0.221184
-0.291481
-0.358881
-0.422714
-0.482346
-0.537185
-0.586685
-0.630353
-0.667758
-0.698525
-0.722351
-0.738997
-0.748299
-0.750164
-0.744574
-0.731584
-0.711322
-0.683992
-0.649863
-0.609276
-0.562634
-0.5104
-0.453093
-0.391284
-0.325585
-0.256651
-0.185166
-0.111841
-0.0374042
0.0374042
0.111841
0.185166
0.256651
0.325585
0.391284
0.453093
0.5104
0.562634
0.609276
0.649863
0.683992
0.711322
0.731584
0.744574
0.750164
0.748299
0.738997
0.722351
0.698525
0.667758
0.630353
0.586685
0.537185
0.482346
0.422714
0.358881
0.291481
0.221184
0.148688
0.0747155
0
0
-0.0809094
-0.161015
-0.23952
-0.315644
-0.388632
-0.457757
-0.522333
-0.581717
-0.635321
-0.68261
-0.723115
-0.756433
-0.782234
-0.80026
-0.810333
-0.812353
-0.806299
-0.792232
-0.770291
-0.740695
-0.703737
-0.659785
-0.609276
-0.552712
-0.490655
-0.423721
-0.352576
-0.277927
-0.200516
-0.121113
-0.040505
0.040505
0.121113
0.200516
0.277927
0.352576
0.423721
0.490655
0.552712
0.609276
0.659785
0.703737
0.740695
0.770291
0.792232
0.806299
0.812353
0.810333
0.80026
0.782234
0.756433
0.723115
0.68261
0.635321
0.581717
0.522333
0.457757
0.388632
0.315644
0.23952
0.161015
0.0809094
0
0
-0.0862992
-0.171741
-0.255475
-0.336671
-0.414521
-0.488251
-0.557128
-0.620469
-0.677643
-0.728082
-0.771285
-0.806823
-0.834342
-0.85357
-0.864314
-0.866468
-0.860011
-0.845007
-0.821604
-0.790036
-0.750617
-0.703737
-0.649863
-0.589531
-0.52334
-0.451947
-0.376063
-0.296442
-0.213874
-0.129181
-0.0432033
0.0432033
0.129181
0.213874
0.296442
0.376063
0.451947
0.52334
0.589531
0.649863
0.703737
0.750617
0.790036
0.821604
0.845007
0.860011
0.866468
0.864314
0.85357
0.834342
0.806823
0.771285
0.728082
0.677643
0.620469
0.557128
0.488251
0.414521
0.336671
0.255475
0.171741
0.0862992
0
0
-0.0908313
-0.18076
-0.268892
-0.354352
-0.43629
-0.513892
-0.586386
-0.653053
-0.71323
-0.766318
-0.81179
-0.849194
-0.878159
-0.898396
-0.909704
-0.911972
-0.905175
-0.889383
-0.864752
-0.831526
-0.790036
-0.740695
-0.683992
-0.620491
-0.550824
-0.475682
-0.395813
-0.31201
-0.225106
-0.135965
-0.0454722
0.0454722
0.135965
0.225106
0.31201
0.395813
0.475682
0.550824
0.620491
0.683992
0.740695
0.790036
0.831526
0.864752
0.889383
0.905175
0.911972
0.909704
0.898396
0.878159
0.849194
0.81179
0.766318
0.71323
0.653053
0.586386
0.513892
0.43629
0.354352
0.268892
0.18076
0.0908313
0
0
-0.0944607
-0.187983
-0.279636
-0.368511
-0.453723
-0.534426
-0.609817
-0.679148
-0.741729
-0.796938
-0.844227
-0.883126
-0.913248
-0.934294
-0.946054
-0.948412
-0.941344
-0.924921
-0.899305
-0.864752
-0.821604
-0.770291
-0.711322
-0.645284
-0.572833
-0.494689
-0.411628
-0.324477
-0.2341
-0.141397
-0.0472891
0.0472891
0.141397
0.2341
0.324477
0.411628
0.494689
0.572833
0.645284
0.711322
0.770291
0.821604
0.864752
0.899305
0.924921
0.941344
0.948412
0.946054
0.934294
0.913248
0.883126
0.844227
0.796938
0.741729
0.679148
0.609817
0.534426
0.453723
0.368511
0.279636
0.187983
0.0944607
0
0
-0.0971513
-0.193337
-0.287601
-0.379007
-0.466647
-0.549648
-0.627187
-0.698492
-0.762856
-0.819638
-0.868274
-0.908281
-0.939261
-0.960906
-0.973001
-0.975426
-0.968157
-0.951266
-0.924921
-0.889383
-0.845007
-0.792232
-0.731584
-0.663665
-0.58915
-0.50878
-0.423353
-0.333719
-0.240768
-0.145425
-0.0486361
0.0486361
0.145425
0.240768
0.333719
0.423353
0.50878
0.58915
0.663665
0.731584
0.792232
0.845007
0.889383
0.924921
0.951266
0.968157
0.975426
0.973001
0.960906
0.939261
0.908281
0.868274
0.819638
0.762856
0.698492
0.627187
0.549648
0.466647
0.379007
0.287601
0.193337
0.0971513
0
0
-0.0988763
-0.19677
-0.292708
-0.385737
-0.474933
-0.559408
-0.638323
-0.710895
-0.776402
-0.834192
-0.883692
-0.924409
-0.955939
-0.977968
-0.990278
-0.992746
-0.985348
-0.968157
-0.941344
-0.905175
-0.860011
-0.806299
-0.744574
-0.675449
-0.599611
-0.517814
-0.43087
-0.339645
-0.245044
-0.148007
-0.0494997
0.0494997
0.148007
0.245044
0.339645
0.43087
0.517814
0.599611
0.675449
0.744574
0.806299
0.860011
0.905175
0.941344
0.968157
0.985348
0.992746
0.990278
0.977968
0.955939
0.924409
0.883692
0.834192
0.776402
0.710895
0.638323
0.559408
0.474933
0.385737
0.292708
0.19677
0.0988763
0
0
-0.0996187
-0.198247
-0.294906
-0.388633
-0.478498
-0.563608
-0.643116
-0.716233
-0.782231
-0.840455
-0.890327
-0.93135
-0.963116
-0.985311
-0.997713
-1.0002
-0.992746
-0.975426
-0.948412
-0.911972
-0.866468
-0.812353
-0.750164
-0.68052
-0.604113
-0.521702
-0.434105
-0.342195
-0.246884
-0.149118
-0.0498714
0.0498714
0.149118
0.246884
0.342195
0.434105
0.521702
0.604113
0.68052
0.750164
0.812353
0.866468
0.911972
0.948412
0.975426
0.992746
1.0002
0.997713
0.985311
0.963116
0.93135
0.890327
0.840455
0.782231
0.716233
0.643116
0.563608
0.478498
0.388633
0.294906
0.198247
0.0996187
0
0
-0.0993711
-0.197755
-0.294173
-0.387667
-0.477309
-0.562207
-0.641517
-0.714452
-0.780286
-0.838366
-0.888113
-0.929034
-0.960722
-0.982861
-0.995233
-0.997713
-0.990278
-0.973001
-0.946054
-0.909704
-0.864314
-0.810333
-0.748299
-0.678828
-0.602611
-0.520405
-0.433026
-0.341344
-0.24627
-0.148748
-0.0497474
0.0497474
0.148748
0.24627
0.341344
0.433026
0.520405
0.602611
0.678828
0.748299
0.810333
0.864314
0.909704
0.946054
0.973001
0.990278
0.997713
0.995233
0.982861
0.960722
0.929034
0.888113
0.838366
0.780286
0.714452
0.641517
0.562207
0.477309
0.387667
0.294173
0.197755
0.0993711
0
0
-0.0981358
-0.195296
-0.290516
-0.382848
-0.471375
-0.555218
-0.633543
-0.705571
-0.770587
-0.827944
-0.877073
-0.917485
-0.948779
-0.970644
-0.982861
-0.985311
-0.977968
-0.960906
-0.934294
-0.898396
-0.85357
-0.80026
-0.738997
-0.67039
-0.59512
-0.513936
-0.427643
-0.337101
-0.243208
-0.146899
-0.049129
0.049129
0.146899
0.243208
0.337101
0.427643
0.513936
0.59512
0.67039
0.738997
0.80026
0.85357
0.898396
0.934294
0.960906
0.977968
0.985311
0.982861
0.970644
0.948779
0.917485
0.877073
0.827944
0.770587
0.705571
0.633543
0.555218
0.471375
0.382848
0.290516
0.195296
0.0981358
0
0
-0.0959252
-0.190897
-0.283972
-0.374224
-0.460757
-0.542711
-0.619272
-0.689677
-0.753229
-0.809294
-0.857316
-0.896818
-0.927407
-0.948779
-0.960722
-0.963116
-0.955939
-0.939261
-0.913248
-0.878159
-0.834342
-0.782234
-0.722351
-0.655289
-0.581715
-0.502359
-0.41801
-0.329508
-0.23773
-0.14359
-0.0480223
0.0480223
0.14359
0.23773
0.329508
0.41801
0.502359
0.581715
0.655289
0.722351
0.782234